BEGIN_CFG
 Size
      64 
 Supercell 
   7.1210800000    0.0000000000    0.0000000000
   0.0000000000    7.1210800000    0.0000000000
   0.0000000000    0.0000000000    7.1210800000
AtomData:  id type       cartes_x      cartes_y      cartes_z     fx          fy          fz
      1      0     3.560540     3.560540     0.000000     0.000000     0.000000     0.000000
      2      0     3.560540     1.780270     1.780270     0.000000     0.000000     0.000000
      3      0     1.780270     3.560540     1.780270     0.000000     0.000000     0.000000
      4      0     1.780270     1.780270     0.000000     0.000000     0.000000     0.000000
      5      0     0.890142     0.890142     2.670398    -0.000002    -0.000002     0.000002
      6      0     0.890142     2.670398     0.890142    -0.000002     0.000002    -0.000002
      7      0     2.670398     0.890142     0.890142     0.000002    -0.000002    -0.000002
      8      0     2.670398     2.670398     2.670398     0.000002     0.000002     0.000002
      9      0     3.560540     3.560540     3.560540     0.000000     0.000000     0.000000
     10      0     3.560540     1.780270     5.340810     0.000000     0.000000     0.000000
     11      0     1.780270     3.560540     5.340810     0.000000     0.000000     0.000000
     12      0     1.780270     1.780270     3.560540     0.000000     0.000000     0.000000
     13      0     0.890142     0.890142     6.230938    -0.000002    -0.000002     0.000002
     14      0     0.890142     2.670398     4.450682    -0.000002     0.000002    -0.000002
     15      0     2.670398     0.890142     4.450682     0.000002    -0.000002    -0.000002
     16      0     2.670398     2.670398     6.230938     0.000002     0.000002     0.000002
     17      0     3.560540     0.000000     0.000000     0.000000     0.000000     0.000000
     18      0     3.560540     5.340810     1.780270     0.000000     0.000000     0.000000
     19      0     1.780270     0.000000     1.780270     0.000000     0.000000     0.000000
     20      0     1.780270     5.340810     0.000000     0.000000     0.000000     0.000000
     21      0     0.890142     4.450682     2.670398    -0.000002    -0.000002     0.000002
     22      0     0.890142     6.230938     0.890142    -0.000002     0.000002    -0.000002
     23      0     2.670398     4.450682     0.890142     0.000002    -0.000002    -0.000002
     24      0     2.670398     6.230938     2.670398     0.000002     0.000002     0.000002
     25      0     3.560540     0.000000     3.560540     0.000000     0.000000     0.000000
     26      0     3.560540     5.340810     5.340810     0.000000     0.000000     0.000000
     27      0     1.780270     0.000000     5.340810     0.000000     0.000000     0.000000
     28      0     1.780270     5.340810     3.560540     0.000000     0.000000     0.000000
     29      0     0.890142     4.450682     6.230938    -0.000002    -0.000002     0.000002
     30      0     0.890142     6.230938     4.450682    -0.000002     0.000002    -0.000002
     31      0     2.670398     4.450682     4.450682     0.000002    -0.000002    -0.000002
     32      0     2.670398     6.230938     6.230938     0.000002     0.000002     0.000002
     33      0     0.000000     3.560540     0.000000     0.000000     0.000000     0.000000
     34      0     0.000000     1.780270     1.780270     0.000000     0.000000     0.000000
     35      0     5.340810     3.560540     1.780270     0.000000     0.000000     0.000000
     36      0     5.340810     1.780270     0.000000     0.000000     0.000000     0.000000
     37      0     4.450682     0.890142     2.670398    -0.000002    -0.000002     0.000002
     38      0     4.450682     2.670398     0.890142    -0.000002     0.000002    -0.000002
     39      0     6.230938     0.890142     0.890142     0.000002    -0.000002    -0.000002
     40      0     6.230938     2.670398     2.670398     0.000002     0.000002     0.000002
     41      0     0.000000     3.560540     3.560540     0.000000     0.000000     0.000000
     42      0     0.000000     1.780270     5.340810     0.000000     0.000000     0.000000
     43      0     5.340810     3.560540     5.340810     0.000000     0.000000     0.000000
     44      0     5.340810     1.780270     3.560540     0.000000     0.000000     0.000000
     45      0     4.450682     0.890142     6.230938    -0.000002    -0.000002     0.000002
     46      0     4.450682     2.670398     4.450682    -0.000002     0.000002    -0.000002
     47      0     6.230938     0.890142     4.450682     0.000002    -0.000002    -0.000002
     48      0     6.230938     2.670398     6.230938     0.000002     0.000002     0.000002
     49      0     0.000000     0.000000     0.000000     0.000000     0.000000     0.000000
     50      0     0.000000     5.340810     1.780270     0.000000     0.000000     0.000000
     51      0     5.340810     0.000000     1.780270     0.000000     0.000000     0.000000
     52      0     5.340810     5.340810     0.000000     0.000000     0.000000     0.000000
     53      0     4.450682     4.450682     2.670398    -0.000002    -0.000002     0.000002
     54      0     4.450682     6.230938     0.890142    -0.000002     0.000002    -0.000002
     55      0     6.230938     4.450682     0.890142     0.000002    -0.000002    -0.000002
     56      0     6.230938     6.230938     2.670398     0.000002     0.000002     0.000002
     57      0     0.000000     0.000000     3.560540     0.000000     0.000000     0.000000
     58      0     0.000000     5.340810     5.340810     0.000000     0.000000     0.000000
     59      0     5.340810     0.000000     5.340810     0.000000     0.000000     0.000000
     60      0     5.340810     5.340810     3.560540     0.000000     0.000000     0.000000
     61      0     4.450682     4.450682     6.230938    -0.000002    -0.000002     0.000002
     62      0     4.450682     6.230938     4.450682    -0.000002     0.000002    -0.000002
     63      0     6.230938     4.450682     4.450682     0.000002    -0.000002    -0.000002
     64      0     6.230938     6.230938     6.230938     0.000002     0.000002     0.000002
Energy 
	-9899.586484 
PlusStress:  xx          yy          zz          yz          xz          xy 
	-0.05522576687130194  	-0.05522576687130194  	-0.05522576687130194  	0.0  	-0.0  	0.0 
END_CFG 
BEGIN_CFG
 Size
      64 
 Supercell 
   7.2635000000    0.0000000000    0.0000000000
   0.0000000000    7.2635000000    0.0000000000
   0.0000000000    0.0000000000    7.2635000000
AtomData:  id type       cartes_x      cartes_y      cartes_z     fx          fy          fz
      1      0     3.569582     3.644708     0.030870     1.574713    -0.188119    -1.999993
      2      0     3.614092     1.797215     1.766338     1.313216     1.163720     1.865590
      3      0     1.828877     3.565238     1.796946    -1.010216     3.118319     0.261116
      4      0     1.800426     1.799597     7.223064     0.100708    -0.012552     1.259081
      5      0     0.917155     0.933229     2.799927     0.323974    -0.668464    -3.029178
      6      0     0.889895     2.731635     0.896454     1.593609    -1.131522     0.288181
      7      0     2.781085     0.882864     0.909383    -2.594878     0.383569    -0.835543
      8      0     2.738637     2.766348     2.711087    -1.292091    -2.268380    -0.436945
      9      0     3.586280     3.666368     3.590486     2.345738    -1.807854     0.918356
     10      0     3.639943     1.846585     5.464324    -0.132818    -0.915766    -0.684979
     11      0     1.781678     3.595985     5.465043     0.693521     0.792849    -0.492217
     12      0     1.769447     1.839525     3.662627     2.552657    -0.530940    -0.127869
     13      0     0.896948     0.911533     6.351989    -0.493323     0.028547    -0.228504
     14      0     0.877779     2.715285     4.548455     0.161566     0.671242    -0.230441
     15      0     2.752707     0.922428     4.563454    -0.963120     0.270228     0.116547
     16      0     2.678873     2.695165     6.328332     0.886528     1.146297     1.168640
     17      0     3.633450     7.263006     7.250498     0.647745    -0.840471     0.277440
     18      0     3.625794     5.415223     1.806265     0.158328     1.244171     0.321639
     19      0     1.842786     7.256614     1.796903    -0.442479     0.620230     1.100834
     20      0     1.797803     5.437362     0.050590    -0.171269     1.363932    -1.588051
     21      0     0.897718     4.512282     2.693509     0.183515     0.587655     1.293268
     22      0     0.863870     6.364344     0.901509     0.907467     0.025114     0.518328
     23      0     2.693713     4.575547     0.908402     0.579302    -2.085421     0.761294
     24      0     2.754617     6.371673     2.706801    -0.449531    -0.838795     1.101274
     25      0     3.681694     0.007089     3.679188    -2.348038     1.452285    -2.373437
     26      0     3.621501     5.448409     5.426103     0.448868     0.521195     0.952492
     27      0     1.824707     0.020650     5.507011    -0.831138     0.294114    -2.687032
     28      0     1.814793     5.460554     3.686924     0.243021    -0.827310    -2.802961
     29      0     0.906172     4.535598     6.422706     0.691212     0.872631    -2.582281
     30      0     0.886844     6.399245     4.470692     1.728999    -2.246166     3.848907
     31      0     2.740090     4.477454     4.518166    -1.725147     2.787303     1.478982
     32      0     2.710593     6.408310     6.344849    -0.022796    -2.544643     0.855703
     33      0     0.058849     3.661857     7.254755    -3.197662    -1.343335     1.506928
     34      0     0.044307     1.823763     1.838864    -1.684300    -0.509042    -0.513249
     35      0     5.396563     3.676065     1.796961     1.546396    -2.526976     0.574676
     36      0     5.492245     1.842096     0.032446    -1.153464    -0.960397    -1.476988
     37      0     4.507866     0.955005     2.727328     1.427664    -1.822638    -0.638584
     38      0     4.561928     2.708821     0.859824    -1.749308     1.064096     1.933661
     39      0     6.344725     0.882799     0.876189     0.219747     0.460609     1.591147
     40      0     6.361017     2.715183     2.760268     0.074896     0.557891    -2.065319
     41      0     7.251196     3.603916     3.641309     0.231258     1.479725    -0.177824
     42      0     7.232114     1.845009     5.392793    -0.061583    -0.915290     2.576145
     43      0     5.413087     3.620208     5.484313     1.513935     1.306719    -0.230363
     44      0     5.497271     1.799409     3.580600    -2.325548     0.970781     1.770124
     45      0     4.495395     0.888115     6.357102     2.019562     1.489873    -0.002691
     46      0     4.583995     2.731613     4.557999    -1.635306    -0.121375    -0.829651
     47      0     6.299387     0.933897     4.559531     2.125103    -0.614953    -1.746622
     48      0     6.360698     2.757515     6.389556     0.333751    -0.737570    -1.304016
     49      0     7.220565     7.250847     7.231889     1.516662     0.635022    -0.205225
     50      0     7.242617     5.481015     1.831542     0.281577    -2.175446    -0.542755
     51      0     5.411896     7.235950     1.803048     0.938075     0.880433     0.623394
     52      0     5.504179     5.460656     0.085477    -1.930349    -0.535982    -4.446098
     53      0     4.522567     4.518311     2.711036    -0.401419     1.430459     0.442049
     54      0     4.571044     6.303411     0.903405    -1.226093     1.608229     0.516449
     55      0     6.311778     4.519233     0.897405     2.461528     1.142414     1.260797
     56      0     6.353921     6.322891     2.726478    -0.462891     1.408497     0.160618
     57      0     0.043763     7.237809     3.618806    -2.634442     1.552385     0.061711
     58      0     7.218706     5.431900     5.460024     2.381308     0.615235    -0.881845
     59      0     5.419573     0.039659     5.405192     0.354714    -1.009457     1.712073
     60      0     5.419428     5.458847     3.655327     1.199397    -0.410237    -0.676502
     61      0     4.538903     4.570986     6.376017    -0.723169    -0.592230     0.038035
     62      0     4.539949     6.416845     4.530405     0.162658    -2.462796     0.333054
     63      0     6.383244     4.550096     4.566824    -2.111527    -0.980056    -0.481632
     64      0     6.390689     6.354117     6.278032    -2.149016     0.678417     2.830263
Energy 
	-9893.9887379 
PlusStress:  xx          yy          zz          yz          xz          xy 
	-50.59369201942435  	-50.01151946740094  	-50.75564068497967  	-0.6821053317584868  	0.45428590898703464  	-0.2806688115706752 
END_CFG 
BEGIN_CFG
 Size
      64 
 Supercell 
   7.1210800000    0.0000000000    0.0000000000
   0.0000000000    7.1210800000    0.0000000000
   0.0000000000    0.0000000000    7.1210800000
AtomData:  id type       cartes_x      cartes_y      cartes_z     fx          fy          fz
      1      0     3.554900     3.556780     0.007947     0.235962     0.052639    -0.454067
      2      0     3.559593     1.771255     1.777671     0.107589     0.548403     0.223351
      3      0     1.779850     3.560982     1.775720    -0.149095     0.016810     0.088894
      4      0     1.781139     1.776980     7.120517    -0.039541     0.174953     0.025760
      5      0     0.897135     0.888533     2.671730    -0.233396    -0.032632     0.011405
      6      0     0.887222     2.672420     0.882167     0.111711    -0.227166     0.322328
      7      0     2.671074     0.896466     0.896110    -0.202043    -0.383119    -0.282634
      8      0     2.666873     2.681763     2.670369     0.178319    -0.465335    -0.065742
      9      0     3.556438     3.565518     3.562213     0.272587    -0.015715    -0.133681
     10      0     3.554601     1.786921     5.339443     0.363088    -0.379470    -0.122438
     11      0     1.776482     3.547872     5.341793     0.349898     0.641139    -0.045837
     12      0     1.787904     1.777649     3.561637    -0.357508     0.209212    -0.147888
     13      0     0.892442     0.896224     6.228837    -0.051455    -0.265957     0.073071
     14      0     0.890562     2.670412     4.453766     0.063173    -0.158691    -0.079836
     15      0     2.668034     0.887037     4.439466     0.186778     0.238346     0.456299
     16      0     2.670405     2.663469     6.227605    -0.106283     0.216291     0.212568
     17      0     3.553533     0.000470     0.001495     0.312643     0.164064    -0.071234
     18      0     3.565126     5.341330     1.788694    -0.225251     0.060717    -0.362149
     19      0     1.779565     7.120161     1.780078     0.039638     0.084762     0.015851
     20      0     1.779686     5.338887     0.001289     0.073002     0.140547    -0.034666
     21      0     0.886140     4.447129     2.662465     0.107685    -0.026329     0.476146
     22      0     0.887771     6.230297     0.898153    -0.011832     0.128948    -0.400098
     23      0     2.668853     4.450169     0.893916     0.149129     0.080645    -0.054751
     24      0     2.667172     6.238678     2.665563     0.031660    -0.433346     0.372931
     25      0     3.556303     7.119264     3.564086     0.117737     0.094868    -0.221758
     26      0     3.569740     5.341202     5.344399    -0.324114     0.086649    -0.147675
     27      0     1.785689     0.004778     5.338788    -0.197503    -0.178105     0.036516
     28      0     1.770215     5.338852     3.566892     0.389263     0.152532    -0.349316
     29      0     0.896494     4.448453     6.231201    -0.316637     0.051992    -0.127205
     30      0     0.893361     6.227413     4.460203    -0.303735     0.381119    -0.409968
     31      0     2.676956     4.462033     4.449251    -0.352504    -0.514595     0.194626
     32      0     2.674863     6.235730     6.227627    -0.148241    -0.146466     0.239601
     33      0     7.120475     3.561373     7.117228    -0.044101    -0.076695     0.108590
     34      0     0.003646     1.767060     1.785682    -0.093343     0.656425    -0.213409
     35      0     5.338866     3.562420     1.786166     0.145074    -0.347551    -0.309895
     36      0     5.347554     1.781238     7.116003    -0.366192    -0.095889     0.219123
     37      0     4.449279     0.888319     2.671074     0.122147    -0.057729     0.030301
     38      0     4.452484     2.662465     0.881839    -0.065525     0.249846     0.410706
     39      0     6.230062     0.895234     0.890762     0.010056    -0.234204    -0.065558
     40      0     6.226936     2.665513     2.678751     0.316211     0.028537    -0.209670
     41      0     0.002507     3.554145     3.566173    -0.056924     0.177175    -0.200787
     42      0     0.001275     1.785077     5.345823    -0.027656    -0.162988    -0.157120
     43      0     5.344007     3.559151     5.334052    -0.130017    -0.023872     0.418868
     44      0     5.353350     1.774274     3.564036    -0.745267     0.234407    -0.116265
     45      0     4.452633     0.891032     6.227384    -0.100185    -0.026571     0.057508
     46      0     4.451074     2.670960     4.448802    -0.024158     0.003958    -0.031988
     47      0     6.231771     0.895682     4.450041     0.150108    -0.260279     0.159244
     48      0     6.225049     2.661589     6.238379     0.323774     0.499190    -0.446866
     49      0     7.113083     0.007719     7.116209     0.424837    -0.309910     0.295206
     50      0     7.120888     5.338709     1.784621     0.016425    -0.042875    -0.166955
     51      0     5.334985     0.003404     1.770357     0.297981    -0.166687     0.428467
     52      0     5.334771     5.348180     0.001538     0.318653    -0.402636    -0.044755
     53      0     4.453082     4.448161     2.669073    -0.085057     0.225987     0.110914
     54      0     4.451024     6.237646     0.889174    -0.189269    -0.227604     0.026810
     55      0     6.236905     4.446830     0.888732    -0.378526     0.229904     0.127343
     56      0     6.235453     6.220933     2.675311    -0.278946     0.624652    -0.379981
     57      0     7.115198     0.006181     3.559693     0.447949    -0.322662     0.168531
     58      0     7.117114     5.349640     5.334202     0.358266    -0.478875     0.593969
     59      0     5.346379     0.000107     5.338773    -0.242965     0.037010     0.075378
     60      0     5.340561     5.349405     3.550264     0.037077    -0.523429     0.611190
     61      0     4.451230     4.449521     6.226594    -0.004837    -0.017605     0.302629
     62      0     4.446317     6.233736     4.452875     0.345390    -0.053839    -0.167864
     63      0     6.238394     4.447741     4.460381    -0.291458     0.235980    -0.566711
     64      0     6.234869     6.226979     6.236642    -0.260247     0.331119    -0.305357
Energy 
	-9899.4649623 
PlusStress:  xx          yy          zz          yz          xz          xy 
	0.1359005719076287  	0.10780859896498257  	0.11211238962785959  	0.07498665886562501  	0.0037751361636351485  	-0.0044595937436505695 
END_CFG 
BEGIN_CFG
 Size
      64 
 Supercell 
   7.2635000000    0.0000000000    0.0000000000
   0.0000000000    7.2635000000    0.0000000000
   0.0000000000    0.0000000000    7.2635000000
AtomData:  id type       cartes_x      cartes_y      cartes_z     fx          fy          fz
      1      0     3.618908     3.630065     0.017447    -0.043620     0.083026    -1.485856
      2      0     3.649379     1.836925     1.809389    -1.746657    -0.301542     0.863614
      3      0     1.784054     3.610221     1.817655     1.508246     0.960664     0.687119
      4      0     1.800186     1.866080     0.003276    -1.061874    -2.245298     0.052621
      5      0     0.912652     0.882602     2.700744    -0.311249     0.174017     1.991650
      6      0     0.927869     2.703620     0.971653    -1.478698     1.513825    -2.133704
      7      0     2.649826     0.978539     0.912506     3.149742    -2.740044     0.213422
      8      0     2.704121     2.688505     2.745320     0.971014     0.829466    -0.497887
      9      0     3.642471     3.564722     3.618596    -0.791869     1.329867     0.506431
     10      0     3.589215     1.773071     5.387570     0.764606    -0.800264     2.812710
     11      0     1.818098     3.624203     5.400746    -1.096069    -2.353120     1.394390
     12      0     1.820923     1.796583     3.689720     0.106788    -0.971471    -3.239994
     13      0     0.838702     0.954024     6.333227     3.811961    -3.375047     3.166826
     14      0     0.912463     2.674225     4.447318    -0.100004     2.071866     3.689666
     15      0     2.728592     0.894696     4.560621    -0.877578    -1.064150    -1.197907
     16      0     2.665065     2.631065     6.302641     1.798928     3.363268     1.044429
     17      0     3.620753     7.251726     0.069403    -1.035767     0.907544    -3.304220
     18      0     3.691086     5.428195     1.797201    -2.945593     1.838584    -1.382587
     19      0     1.860473     7.250179     1.841610    -3.472413     0.942372    -1.515250
     20      0     1.768626     5.407792     7.160845     1.023346     1.731606     2.778662
     21      0     0.944081     4.548491     2.747557    -2.522540    -1.612825    -2.996435
     22      0     0.821749     6.340970     0.915462     2.676266     0.894604    -1.874599
     23      0     2.692645     4.595261     0.861560     0.820330    -2.480967     0.609966
     24      0     2.655942     6.358541     2.728236     3.780963    -1.282664     0.168384
     25      0     3.622736     7.244608     3.651376     0.376745     0.157913    -0.552910
     26      0     3.628903     5.473229     5.461941     0.871258    -2.089520    -1.223109
     27      0     1.833053     7.247121     5.445046    -0.863973     0.483700    -0.715907
     28      0     1.780182     5.376065     3.568746     2.052971     2.590022     2.752145
     29      0     0.877656     4.467822     6.367605     1.591917     2.881968    -3.069375
     30      0     0.912572     6.327976     4.483853    -0.639628     0.119638     1.377001
     31      0     2.732580     4.443265     4.586653     0.558155     3.045197    -2.636255
     32      0     2.755351     6.375232     6.302895    -2.029970    -0.845545     2.334431
     33      0     0.033405     3.693446     7.233342    -2.398799    -3.251390     3.237821
     34      0     7.251501     1.808067     1.881152     1.086064    -1.336868    -2.869704
     35      0     5.461070     3.629840     1.852926     0.139255     0.593621    -1.736814
     36      0     5.454373     1.812025     0.082099    -0.673488     0.866156    -2.458259
     37      0     4.587489     0.910741     2.675103    -2.931185    -0.259392     1.241831
     38      0     4.508091     2.766950     0.964498     1.092489    -0.779193    -1.554300
     39      0     6.315657     0.885174     0.927433     0.493499     0.412929     0.229075
     40      0     6.396289     2.685839     2.692311    -1.901574     2.906161     2.344028
     41      0     0.029773     3.664174     3.598440    -1.083932    -2.225758     0.733362
     42      0     0.082433     1.801791     5.511261    -4.924346     2.356310    -4.291324
     43      0     5.402766     3.628888     5.486790     2.008668    -2.164088    -2.395643
     44      0     5.425893     1.857647     3.618814     1.737536    -2.845367     0.154625
     45      0     4.505760     0.868489     6.344696     0.412047     1.230296     1.839302
     46      0     4.486134     2.600616     4.523279     1.314220     4.331842    -0.203732
     47      0     6.327584     0.922007     4.550118     0.834211    -0.430901     0.251328
     48      0     6.390747     2.729398     6.383367    -0.887416     0.254739     0.460410
     49      0     7.225810     0.010815     0.020432     0.298407     0.241477    -0.900979
     50      0     7.211995     5.458295     1.748404     1.236335    -0.049936     3.787947
     51      0     5.351050     7.253542     1.761086     3.678987    -0.283739     1.897023
     52      0     5.487204     5.472401     7.256062    -1.244979    -0.965453    -0.452471
     53      0     4.582586     4.611887     2.634631    -0.773705    -3.792723     4.107118
     54      0     4.558369     6.358838     0.862824    -1.653288    -0.288089     0.907678
     55      0     6.332762     4.581235     0.971624     0.665002    -1.775971    -3.686163
     56      0     6.317197     6.286036     2.723340     0.673974     2.972585    -0.615252
     57      0     7.236211     0.018645     3.612124     0.169536    -1.470954     0.146619
     58      0     7.242102     5.435168     5.425130     0.381032    -0.021198    -0.053023
     59      0     5.428028     7.252910     5.506823     0.561534     0.171751    -2.184390
     60      0     5.462551     5.418012     3.622126    -0.744581     0.630161     0.382391
     61      0     4.562807     4.519960     6.291956    -1.613605     1.145810     3.576851
     62      0     4.571952     6.325666     4.578794    -1.314345     0.628333    -1.555870
     63      0     6.334251     4.515791     4.531436     0.367456    -0.298837    -0.110288
     64      0     6.361947     6.363102     6.333387     0.149260    -0.259003     1.153328
Energy 
	-9891.6892423 
PlusStress:  xx          yy          zz          yz          xz          xy 
	-46.945382848599635  	-46.8474294628021  	-47.73055355521071  	-0.08569550377949187  	0.7292721875601098  	0.7160020682723187 
END_CFG 
BEGIN_CFG
 Size
      64 
 Supercell 
   7.1210800000    0.0000000000    0.0000000000
   0.0000000000    7.1210800000    0.0000000000
   0.0000000000    0.0000000000    7.1210800000
AtomData:  id type       cartes_x      cartes_y      cartes_z     fx          fy          fz
      1      0     3.531116     3.562470     0.021755     1.783801     0.633836    -0.078072
      2      0     3.574476     1.802032     1.751081     0.618908    -2.162137    -0.041453
      3      0     1.740833     3.533950     1.746829     1.796669     0.912182     1.076463
      4      0     1.725231     1.773697     7.078190     3.730066     1.175459     2.458564
      5      0     0.944682     0.923604     2.641194    -2.363333    -3.335861    -0.078700
      6      0     0.856687     2.658107     0.920969     1.612616    -0.101610    -1.690502
      7      0     2.731497     0.781275     0.880465    -3.690458     4.431383     0.261547
      8      0     2.697102     2.630833     2.597763    -2.015495     1.227399     1.162672
      9      0     3.504020     3.529777     3.524422     1.907118    -0.035300    -0.369319
     10      0     3.595903     1.831912     5.314241    -1.328341    -2.640581     1.295022
     11      0     1.829142     3.546633     5.379114    -1.912017     0.380715    -1.076157
     12      0     1.799127     1.755289     3.470800     0.398339     1.130487     3.346495
     13      0     0.877951     0.933381     6.288975     1.263602    -0.866415    -4.261479
     14      0     0.889409     2.707150     4.496777     1.629620    -0.425549    -2.761341
     15      0     2.643316     0.887778     4.500444     2.323396     1.280869    -3.616021
     16      0     2.702186     2.716998     6.243621    -0.970509    -2.708058     0.236514
     17      0     3.523496     7.079863     0.029780     3.424877    -0.820563    -2.556908
     18      0     3.541135     5.348800     1.725587     1.727857    -0.196330     3.532171
     19      0     1.736454     7.082790     1.739587     2.921591    -0.102043     1.733498
     20      0     1.848825     5.275987     7.075462    -3.166327     3.308735     0.029892
     21      0     0.878150     4.388971     2.665370    -0.624960     2.475661    -0.759179
     22      0     0.889223     6.165787     0.872852     0.742776     2.503016    -0.816712
     23      0     2.694211     4.531805     0.874803    -1.184273    -4.301711    -0.401248
     24      0     2.676629     6.208514     2.676622    -0.875990    -0.182882    -0.525485
     25      0     3.600503     7.075833     3.550257    -1.793816     0.570663     1.254744
     26      0     3.524828     5.332592     5.318450     1.722594     0.049881     0.365458
     27      0     1.838442     0.021662     5.323912    -3.547058    -1.177983     1.473800
     28      0     1.726107     5.346108     3.529521     1.616254    -1.435309     0.487013
     29      0     0.910544     4.431683     6.236300    -0.081191    -0.310130    -0.126448
     30      0     0.846511     6.213470     4.411837     1.686770     0.576954     1.013289
     31      0     2.648785     4.410420     4.468755    -0.028829     1.712500    -1.909181
     32      0     2.686919     6.239170     6.191295    -0.655973    -1.169245     1.002143
     33      0     0.009877     3.540751     0.054369    -0.725773     0.993702    -1.746739
     34      0     0.072087     1.737444     1.764739    -3.929811     1.539448     1.589217
     35      0     5.303923     3.616113     1.789079     2.960178    -3.311740    -0.613909
     36      0     5.398113     1.835508     7.106624    -2.008309    -1.628036    -0.329481
     37      0     4.401518     0.839077     2.683964     2.573774     3.141240    -1.046503
     38      0     4.490966     2.739002     0.889815    -1.404618    -2.647791    -0.573779
     39      0     6.207723     0.907525     0.862434     2.018372     0.453417     1.271392
     40      0     6.187086     2.639898     2.774451     4.093360     2.813375    -5.056620
     41      0     7.111730     3.610964     3.597976    -0.820786    -2.601112    -0.238097